 Q-Chem 5.2 (devel), Q-Chem, Inc., Pleasanton, CA (2019)
 Q-Chem 5.2.0 for Intel X86 EM64T Linux

User input:
--------------------------------------------------------------
$molecule
-4 1
N        -0.0413476082   -0.0097195466   -0.0302620842
C        -0.0388987439    0.0555353972    1.4182459723
H         0.9766655645   -0.0976584627    1.7788906908
H        -0.3605482583    1.0455736393    1.7609271905
C         0.9414170791    0.9292799581   -0.5356910211
H         0.8779142597    0.9647213861   -1.6212699918
H         0.7428064705    1.9426126798   -0.1679013074
C        -1.3636863653    0.3925132072   -0.4972339960
H        -2.0887460737   -0.2549918151   -0.0145792824
H        -1.5725711172    1.4204353416   -0.1746035969
C        -0.8977744395   -0.9862775153    2.1228620657
O        -1.2173166836   -2.0395725942    1.5241188127
O        -1.1959253110   -0.7148005004    3.3161977307
C         2.3933309452    0.5903783465   -0.2253860124
O         2.7165534933   -0.5975406766    0.0087304198
O         3.1946057610    1.5603439967   -0.2758749860
C        -1.5090801488    0.2850006091   -2.0108714353
H        -1.1419756598    1.1919714782   -2.4833872638
H        -0.9034891866   -0.5462764692   -2.3650463503
N        -2.8791378174    0.0684935201   -2.4763316537
C        -3.3612058268   -1.2403084279   -2.0844283225
H        -2.5920066307   -1.9777936883   -2.3138524256
H        -3.5589799454   -1.3103692016   -1.0115144788
C        -3.7673219257    1.0791393529   -1.9274127190
H        -4.7705216677    0.9035768011   -2.3129795802
H        -3.8205757962    1.0156283600   -0.8387555482
C        -3.3965178548    2.5070456609   -2.3065431389
O        -3.0149206952    2.7390993387   -3.4792818219
O        -3.5443607931    3.3796697028   -1.4119679559
C        -4.6255418275   -1.7153651348   -2.7923304269
O        -5.0198124083   -1.1434544898   -3.8339573390
O        -5.1807701075   -2.7162174688   -2.2642598168
$end

$rem
 jobtype = opt
 method =  m05-2x
 basis = def2-tzvp
 solvent_method = smd
!purecart = 2111
 mem_static = 16000
 mem_total = 32000
 geom_opt_max_cycles = 600
 geom_opt_tol_gradient = 40
 geom_opt_tol_energy = 20
 geom_opt_tol_displacement = 100
 geom_opt_dmax = 10
 scf_convergence = 8
 max_scf_cycles = 10000
 xc_grid = 3
$end

--------------------------------------------------------------

   13   -1100.5842337965      5.43e-09  Convergence criterion met
 Total energy in the final basis set =    -1100.5737030214
   11   -1100.5843469494      3.99e-09  Convergence criterion met
 Total energy in the final basis set =    -1100.5737916197
   11   -1100.5844228761      4.40e-09  Convergence criterion met
 Total energy in the final basis set =    -1100.5738482370
   11   -1100.5845177618      6.20e-09  Convergence criterion met
 Total energy in the final basis set =    -1100.5739194657
   11   -1100.5845966484      6.33e-09  Convergence criterion met
 Total energy in the final basis set =    -1100.5739747979
   23   -1100.5846712605      6.04e-09  Convergence criterion met
 Total energy in the final basis set =    -1100.5740261287
   11   -1100.5847468223      4.03e-09  Convergence criterion met
 Total energy in the final basis set =    -1100.5740778398
   10   -1100.5848036829      8.42e-09  Convergence criterion met
   11   -1100.5858191304      5.12e-09  Convergence criterion met
 Total energy in the final basis set =    -1100.5745716570
   11   -1100.5858188392      6.10e-09  Convergence criterion met
 Total energy in the final basis set =    -1100.5745719415
   10   -1100.5858175626      8.91e-09  Convergence criterion met
 Total energy in the final basis set =    -1100.5745722187
   11   -1100.5858146438      6.26e-09  Convergence criterion met
 Total energy in the final basis set =    -1100.5745724811
   11   -1100.5858085776      3.88e-09  Convergence criterion met
 Total energy in the final basis set =    -1100.5745726918
   10   -1100.5858047168      6.06e-09  Convergence criterion met
 Total energy in the final basis set =    -1100.5745727691

             Standard Nuclear Orientation (Angstroms)
    I     Atom           X                Y                Z
 ----------------------------------------------------------------
    1      N       0.0070361113     0.0112452556    -0.0028478697
    2      C       0.0113241760    -0.0301938538     1.4506179123
    3      H       1.0431933075    -0.0446444249     1.8006503442
    4      H      -0.4563763991     0.8686821135     1.8722724892
    5      C       0.8879775576     1.0838958266    -0.4389221544
    6      H       0.7964983334     1.2099854995    -1.5164645983
    7      H       0.6085887128     2.0411231288     0.0188844549
    8      C      -1.3599596719     0.2801317913    -0.4579905983
    9      H      -2.0171041648    -0.4189214490     0.0552604091
   10      H      -1.6553726872     1.2939373749    -0.1564901639
   11      C      -0.6545120691    -1.2450791872     2.0924609523
   12      O      -0.8467096677    -2.2860441065     1.4214056207
   13      O      -0.9313802997    -1.1153417863     3.3150865269
   14      C       2.3804595390     0.8692694608    -0.1928109566
   15      O       2.8304862911    -0.2912286635    -0.0455315452
   16      O       3.0795029013     1.9172360261    -0.2064110820
   17      C      -1.5270524028     0.1085590964    -1.9673677156
   18      H      -1.0646520786     0.9410060409    -2.4930923243
   19      H      -1.0144864868    -0.8016686439    -2.2748244343
   20      N      -2.9115963030     0.0116477614    -2.4401102459
   21      C      -3.5562578038    -1.2087254680    -1.9912021364
   22      H      -2.8546078985    -2.0374026276    -2.1014779966
   23      H      -3.8407651820    -1.1751449173    -0.9348711963
   24      C      -3.7087919558     1.1571650727    -2.0302810969
   25      H      -4.7194300140     1.0289066761    -2.4211609375
   26      H      -3.7974252805     1.2272615586    -0.9431135741
   27      C      -3.2290953557     2.5077025249    -2.5577309973
   28      O      -2.7211751683     2.5720772712    -3.7031217017
   29      O      -3.4341345955     3.4969745804    -1.8056642875
   30      C      -4.8067357244    -1.6227857621    -2.7698470943
   31      O      -5.0492013691    -1.1211125458    -3.8916614244
   32      O      -5.5079836708    -2.5078408387    -2.2093922508
 ----------------------------------------------------------------

   11   -1100.5858005045      5.99e-09  Convergence criterion met
 Total energy in the final basis set =    -1100.5745728189
 Final energy is   -1100.57457281886
 **  OPTIMIZATION CONVERGED  **

                    Orbital Energies (a.u.)
 --------------------------------------------------------------

 Alpha MOs
 -- Occupied --
-19.6111 -19.6110 -19.6108 -19.6101 -19.6098 -19.6088 -19.6083 -19.6078
-14.7686 -14.7665 -10.6566 -10.6561 -10.6561 -10.6555 -10.5693 -10.5687
-10.5682 -10.5670 -10.5662 -10.5644  -1.1590  -1.1585  -1.1574  -1.1571
 -1.0574  -1.0567  -1.0561  -1.0557  -1.0389  -1.0232  -0.8440  -0.8187
 -0.8178  -0.7732  -0.7114  -0.6698  -0.6089  -0.6011  -0.5946  -0.5900
 -0.5623  -0.5537  -0.5510  -0.5448  -0.5371  -0.5318  -0.5160  -0.5136
 -0.5035  -0.4995  -0.4989  -0.4979  -0.4837  -0.4814  -0.4777  -0.4715
 -0.4583  -0.4469  -0.4414  -0.4276  -0.4095  -0.4045  -0.3921  -0.3390
 -0.3388  -0.3378  -0.3370  -0.3278  -0.3269  -0.3256  -0.3245  -0.3235
 -0.3230  -0.3218  -0.3202  -0.2895  -0.2705

          Ground-State Mulliken Net Atomic Charges

     Atom                 Charge (a.u.)
  ----------------------------------------
      1 N                    -0.181605
      2 C                    -0.336593
      3 H                     0.171653
      4 H                     0.148295
      5 C                    -0.303733
      6 H                     0.171820
      7 H                     0.142018
      8 C                    -0.293741
      9 H                     0.195208
     10 H                     0.164916
     11 C                     0.292153
     12 O                    -0.599989
     13 O                    -0.625577
     14 C                     0.284025
     15 O                    -0.601341
     16 O                    -0.623537
     17 C                    -0.284096
     18 H                     0.176899
     19 H                     0.169995
     20 N                    -0.175119
     21 C                    -0.338130
     22 H                     0.176075
     23 H                     0.139254
     24 C                    -0.344167
     25 H                     0.169829
     26 H                     0.152541
     27 C                     0.308183
     28 O                    -0.604852
     29 O                    -0.620911
     30 C                     0.297492
     31 O                    -0.600308
     32 O                    -0.626657
  ----------------------------------------
  Sum of atomic charges =    -4.000000

                    Cartesian Multipole Moments
 -----------------------------------------------------------------
    Charge (ESU x 10^10)
               -19.2128
    Dipole Moment (Debye)
         X      29.7943      Y       0.0284      Z      19.0202
       Tot      35.3478
    Quadrupole Moments (Debye-Ang)
        XX    -369.5442     XY     -26.4642     YY    -232.4263
        XZ    -112.0721     YZ      37.7572     ZZ    -268.4828

 Total job time:  45933.58s(wall), 609684.68s(cpu)
        *  Thank you very much for using Q-Chem.  Have a nice day.  *
