 Q-Chem 5.2 (devel), Q-Chem, Inc., Pleasanton, CA (2019)
 Q-Chem 5.2.0 for Intel X86 EM64T Linux

User input:
--------------------------------------------------------------
$molecule
-2 1
Mg       -0.0124507249    0.0075219432    0.0175835464
O         0.0139254005   -0.0627736841    2.0752511483
C         1.1456925045   -0.0885209254    2.6481248430
O         1.3232549621   -0.2389480008    3.8669426661
C         2.3710360196    0.1409716142    1.7760246012
H         3.2087769549   -0.4323017498    2.1704889313
H         2.6070302463    1.1977272175    1.8937756706
N         2.1599331614   -0.1387509331    0.3606179717
C         2.7062738950    0.9089299218   -0.4829352789
H         2.7451992808    0.5542249731   -1.5101026923
H         3.7099480972    1.2080532360   -0.1839543942
C         2.5651085244   -1.4939057112   -0.0069445450
H         2.6136031816   -1.5505066844   -1.0910673763
H         3.5532136168   -1.7325356308    0.3877971091
C         1.5412251046   -2.4838715799    0.5129921882
H         1.4596688408   -2.3972576996    1.5930627428
H         1.8507840353   -3.5024900426    0.2773993639
N         0.2364251048   -2.1792720031   -0.0696977603
C        -0.8992725820   -2.6806594357    0.6813613873
H        -0.6872092899   -2.5957451341    1.7444221873
H        -1.1245854830   -3.7217366792    0.4558335727
C         0.1612984420   -2.5478786201   -1.4777860854
H        -0.8581848628   -2.8543061637   -1.7094200962
H         0.8190409978   -3.3859171336   -1.7040159864
C         0.4558440474   -1.4028773583   -2.4324257605
O         0.7884641289   -1.6939692022   -3.5933739564
O         0.2934481977   -0.2234256729   -1.9989232734
C         1.7954279723    2.1333757498   -0.4881091324
O         2.2829479984    3.2138171389   -0.8504413882
O         0.5792725210    1.9631653982   -0.1511059847
C        -2.1378833719   -1.8293766691    0.4192357106
O        -3.2463681463   -2.3386402709    0.6423403495
O        -1.9578120331   -0.6358096355    0.0151833948
$end

$rem
 jobtype = opt
 method =  m05-2x
 basis = def2-tzvp
 solvent_method = smd
 !purecart = 2111
 mem_static = 1000
 mem_total = 16000
 geom_opt_max_cycles = 600
 geom_opt_tol_gradient = 40
 geom_opt_tol_energy = 20
 geom_opt_tol_displacement = 100
 geom_opt_dmax = 10
 scf_convergence = 8
 max_scf_cycles = 5000
 xc_grid = 3
 chelpg true
$end

--------------------------------------------------------------

   14   -1300.6401876255      3.71e-09  Convergence criterion met
 Total energy in the final basis set =    -1300.6241021945
   11   -1300.6402534553      5.76e-09  Convergence criterion met
 Total energy in the final basis set =    -1300.6241673009
   11   -1300.6403093920      4.89e-09  Convergence criterion met
 Total energy in the final basis set =    -1300.6242217117
   10   -1300.6403577420      8.87e-09  Convergence criterion met
 Total energy in the final basis set =    -1300.6242683386
    7   -1300.6404004104      3.08e-09  Convergence criterion met
 Total energy in the final basis set =    -1300.6243091620
    7   -1300.6404386782      2.99e-09  Convergence criterion met
 Total energy in the final basis set =    -1300.6243455221
    7   -1300.6404734756      2.92e-09  Convergence criterion met
 Total energy in the final basis set =    -1300.6243783689
   11   -1300.6405054569      6.38e-09  Convergence criterion met
    6   -1300.6411914275      6.64e-09  Convergence criterion met
 Total energy in the final basis set =    -1300.6249427969
    6   -1300.6411922959      6.62e-09  Convergence criterion met
 Total energy in the final basis set =    -1300.6249428620
   11   -1300.6411931102      5.83e-09  Convergence criterion met
 Total energy in the final basis set =    -1300.6249429145
    6   -1300.6411938577      6.55e-09  Convergence criterion met
 Total energy in the final basis set =    -1300.6249429560
   11   -1300.6411945107      6.09e-09  Convergence criterion met
 Total energy in the final basis set =    -1300.6249429902
    6   -1300.6411949935      6.42e-09  Convergence criterion met
 Total energy in the final basis set =    -1300.6249430238

             Standard Nuclear Orientation (Angstroms)
    I     Atom           X                Y                Z
 ----------------------------------------------------------------
    1      Mg     -0.0010725998     0.0036117038     0.0019360108
    2      O       0.0014285825    -0.0005903663     2.0538588676
    3      C       1.1201868485    -0.0166946712     2.6515652756
    4      O       1.2668333177    -0.1001347696     3.8825726792
    5      C       2.3768596173     0.1337859131     1.8037657401
    6      H       3.1659310810    -0.4909404137     2.2241393780
    7      H       2.6837625676     1.1718052493     1.9355964185
    8      N       2.1836280524    -0.1360651531     0.3791388286
    9      C       2.7310094358     0.9256681544    -0.4546837760
   10      H       2.8008426829     0.5772247392    -1.4839112878
   11      H       3.7258674837     1.2413392844    -0.1391079143
   12      C       2.5862565467    -1.4950227282     0.0007557082
   13      H       2.6528622431    -1.5394193361    -1.0843772607
   14      H       3.5700967033    -1.7460524479     0.4036237356
   15      C       1.5558490536    -2.5007153188     0.4946694306
   16      H       1.4692469299    -2.4385454674     1.5775466782
   17      H       1.8813084901    -3.5134507687     0.2467671198
   18      N       0.2437248500    -2.2028412932    -0.0900976100
   19      C      -0.8976144317    -2.6954648109     0.6689240881
   20      H      -0.6774941916    -2.6312617021     1.7331399299
   21      H      -1.1424467578    -3.7324758065     0.4381864823
   22      C       0.1608429632    -2.5733807877    -1.5027810575
   23      H      -0.8416434590    -2.9441471227    -1.7195169557
   24      H       0.8599818564    -3.3739454247    -1.7468942430
   25      C       0.3742614323    -1.4178294822    -2.4718743787
   26      O       0.6142405791    -1.7026452636    -3.6573257524
   27      O       0.2493655015    -0.2393650023    -2.0195877895
   28      C       1.8039735494     2.1422704462    -0.4826359722
   29      O       2.2909996438     3.2312530551    -0.8230930302
   30      O       0.5785618101     1.9563355732    -0.1891498466
   31      C      -2.1339343886    -1.8248645846     0.4367123112
   32      O      -3.2435069565    -2.3193633415     0.6884865088
   33      O      -1.9471322947    -0.6317674829     0.0317853579
 ----------------------------------------------------------------

   10   -1300.6411950491      6.27e-09  Convergence criterion met
 Total energy in the final basis set =    -1300.6249430615
 Final energy is   -1300.62494306154
 **  OPTIMIZATION CONVERGED  **

                    Orbital Energies (a.u.)
 --------------------------------------------------------------

 Alpha MOs
 -- Occupied --
-47.5682 -19.6388 -19.6388 -19.6374 -19.6373 -19.6286 -19.6286 -19.6272
-19.6272 -14.7960 -14.7960 -10.6778 -10.6777 -10.6760 -10.6759 -10.5881
-10.5880 -10.5877 -10.5875 -10.5870 -10.5865  -3.2396  -1.9444  -1.9434
 -1.9429  -1.1857  -1.1828  -1.1818  -1.1803  -1.0887  -1.0836  -1.0826
 -1.0804  -1.0631  -1.0428  -0.8738  -0.8417  -0.8396  -0.7923  -0.7349
 -0.6818  -0.6306  -0.6250  -0.6222  -0.6188  -0.6016  -0.5942  -0.5797
 -0.5650  -0.5642  -0.5578  -0.5388  -0.5363  -0.5328  -0.5320  -0.5217
 -0.5173  -0.5146  -0.5051  -0.4991  -0.4877  -0.4852  -0.4673  -0.4498
 -0.4440  -0.4333  -0.4325  -0.4128  -0.3802  -0.3714  -0.3690  -0.3660
 -0.3620  -0.3594  -0.3540  -0.3513  -0.3510  -0.3469  -0.3411  -0.3386
 -0.3178  -0.3058

         Ground-State ChElPG Net Atomic Charges

     Atom                 Charge (a.u.)
  ----------------------------------------
      1 Mg                    1.529512
      2 O                    -0.962678
      3 C                     0.952678
      4 O                    -0.852225
      5 C                    -0.561769
      6 H                     0.159029
      7 H                     0.179990
      8 N                     0.418252
      9 C                    -0.613956
     10 H                     0.175165
     11 H                     0.166110
     12 C                    -0.162959
     13 H                     0.068810
     14 H                     0.083114
     15 C                    -0.163284
     16 H                     0.069579
     17 H                     0.087133
     18 N                     0.399843
     19 C                    -0.612183
     20 H                     0.175043
     21 H                     0.166746
     22 C                    -0.544557
     23 H                     0.176560
     24 H                     0.155720
     25 C                     0.947445
     26 O                    -0.851076
     27 O                    -0.962518
     28 C                     1.006465
     29 O                    -0.856678
     30 O                    -0.962041
     31 C                     1.006629
     32 O                    -0.856238
     33 O                    -0.961659
  ----------------------------------------
  Sum of atomic charges =    -2.000000

                    Cartesian Multipole Moments
 -----------------------------------------------------------------
    Charge (ESU x 10^10)
                -9.6064
    Dipole Moment (Debye)
         X       8.0369      Y      -7.7505      Z       0.9831
       Tot      11.2084
    Quadrupole Moments (Debye-Ang)
        XX    -160.4609     XY     -37.9829     YY    -161.8998
        XZ      10.4945     YZ      -0.3620     ZZ    -214.8388

 Total job time:  64887.17s(wall), 896958.43s(cpu)
        *  Thank you very much for using Q-Chem.  Have a nice day.  *
