 Q-Chem 5.3 (devel), Q-Chem, Inc., Pleasanton, CA (2020)
 Q-Chem 5.3.2 for Intel X86 EM64T Linux

User input:
--------------------------------------------------------------
$rem
gui                  2
basis                6-31g(d)
exchange             b3lyp
scf_convergence      11
$end

$molecule
0 1
C   -0.0000105292 0.0000006962 -0.0000178037
H   0.6529680916 0.7467680545 0.4596482082
H   0.6281780250 -0.0862798069 -0.8906613474
H   -1.0052896422 0.3737584792 -0.2121539026
H   -0.0697381211 -0.9279889972 0.5738454712
$end
--------------------------------------------------------------

             Standard Nuclear Orientation (Angstroms)
    I     Atom           X                Y                Z
 ----------------------------------------------------------------
    1      C      -0.0242049278    -0.0000068770     0.0000083437
    2      H       0.7279884172     0.0001610602    -0.7934275723
    3      H       0.7280530700    -0.0001505990     0.7933676513
    4      H      -0.6554124477    -0.8926768869    -0.0001335674
    5      H      -0.6553994729     0.8927076879     0.0001434264
 ----------------------------------------------------------------

   11     -40.5111829987      8.89e-12  Convergence criterion met
 Total energy in the final basis set =      -40.5111829987

                    Orbital Energies (a.u.)
 --------------------------------------------------------------

 Alpha MOs
 -- Occupied --
-10.1673  -0.6922  -0.4163  -0.3893  -0.3595

          Ground-State Mulliken Net Atomic Charges

     Atom                 Charge (a.u.)
  ----------------------------------------
      1 C                    -0.630314
      2 H                     0.154802
      3 H                     0.154808
      4 H                     0.160356
      5 H                     0.160348
  ----------------------------------------
  Sum of atomic charges =     0.000000

                    Cartesian Multipole Moments
 -----------------------------------------------------------------
    Charge (ESU x 10^10)
                -0.0000
    Dipole Moment (Debye)
         X       0.0979      Y      -0.0000      Z      -0.0000
       Tot       0.0979
    Quadrupole Moments (Debye-Ang)
        XX      -7.7585     XY       0.0000     YY      -8.2145
        XZ       0.0000     YZ       0.0000     ZZ      -8.8155

 Total job time:  0.78s(wall), 0.77s(cpu)
        *  Thank you very much for using Q-Chem.  Have a nice day.  *
