 Q-Chem 5.3 (devel), Q-Chem, Inc., Pleasanton, CA (2020)
 Q-Chem 5.3.2 for Intel X86 EM64T Linux

User input:
--------------------------------------------------------------
$rem
gui                  2
basis                6-31g(d)
exchange             b3lyp
scf_convergence      11
$end

$molecule
0 1
C   -0.0000105292 0.0000006962 -0.0000178037
H   0.4773757118 0.7365929843 0.6518024071
H   0.4477321883 -0.2596530164 -0.9630429930
H   -1.0052896422 0.3737584792 -0.2121539026
H   -0.0697381211 -0.9279889972 0.5738454712
$end
--------------------------------------------------------------

             Standard Nuclear Orientation (Angstroms)
    I     Atom           X                Y                Z
 ----------------------------------------------------------------
    1      C      -0.0000086205    -0.0000066988     0.0176039993
    2      H       0.9487881690    -0.0003151466     0.5608534505
    3      H      -0.9488709457     0.0002884698     0.5607166096
    4      H      -0.0002535343    -0.8926588051    -0.6136288080
    5      H       0.0003880341     0.8927256747    -0.6135652477
 ----------------------------------------------------------------

   11     -40.5154255910      8.20e-12  Convergence criterion met
 Total energy in the final basis set =      -40.5154255910

                    Orbital Energies (a.u.)
 --------------------------------------------------------------

 Alpha MOs
 -- Occupied --
-10.1671  -0.6909  -0.4057  -0.3891  -0.3714

          Ground-State Mulliken Net Atomic Charges

     Atom                 Charge (a.u.)
  ----------------------------------------
      1 C                    -0.630632
      2 H                     0.159870
      3 H                     0.159874
      4 H                     0.155448
      5 H                     0.155439
  ----------------------------------------
  Sum of atomic charges =     0.000000

                    Cartesian Multipole Moments
 -----------------------------------------------------------------
    Charge (ESU x 10^10)
                 0.0000
    Dipole Moment (Debye)
         X       0.0000      Y      -0.0000      Z      -0.0600
       Tot       0.0600
    Quadrupole Moments (Debye-Ang)
        XX      -7.9278     XY      -0.0000     YY      -8.2804
        XZ      -0.0000     YZ       0.0000     ZZ      -8.5600

 Total job time:  0.78s(wall), 0.77s(cpu)
        *  Thank you very much for using Q-Chem.  Have a nice day.  *
