 Q-Chem 5.3 (devel), Q-Chem, Inc., Pleasanton, CA (2020)
 Q-Chem 5.3.2 for Intel X86 EM64T Linux

User input:
--------------------------------------------------------------
$rem
gui                  2
basis                6-31g(d)
exchange             b3lyp
scf_convergence      11
$end

$molecule
0 1
C   -0.0000105292 0.0000006962 -0.0000178037
H   0.6271250557 0.8480848918 0.6582251239
H   0.5235734368 -0.1915343166 -0.9404885774
H   -1.0052896422 0.3737584792 -0.2121539026
H   -0.0697381211 -0.9279889972 0.5738454712
$end
--------------------------------------------------------------

             Standard Nuclear Orientation (Angstroms)
    I     Atom           X                Y                Z
 ----------------------------------------------------------------
    1      C       0.0150071319     0.0000037837    -0.0000020550
    2      H      -1.2283067935     0.0002662162     0.0000995992
    3      H       0.3796458051     0.4979985470     0.9024119079
    4      H       0.3794809113     0.5324168447    -0.8825992998
    5      H       0.3791372855    -1.0307043100    -0.0198998770
 ----------------------------------------------------------------

   11     -40.5077306763      4.88e-12  Convergence criterion met
 Total energy in the final basis set =      -40.5077306763

                    Orbital Energies (a.u.)
 --------------------------------------------------------------

 Alpha MOs
 -- Occupied --
-10.1820  -0.6818  -0.3913  -0.3913  -0.3671

          Ground-State Mulliken Net Atomic Charges

     Atom                 Charge (a.u.)
  ----------------------------------------
      1 C                    -0.607086
      2 H                     0.120709
      3 H                     0.162130
      4 H                     0.162136
      5 H                     0.162110
  ----------------------------------------
  Sum of atomic charges =     0.000000

                    Cartesian Multipole Moments
 -----------------------------------------------------------------
    Charge (ESU x 10^10)
                -0.0000
    Dipole Moment (Debye)
         X       0.1295      Y      -0.0000      Z      -0.0000
       Tot       0.1295
    Quadrupole Moments (Debye-Ang)
        XX      -8.3048     XY       0.0002     YY      -8.3676
        XZ       0.0000     YZ      -0.0000     ZZ      -8.3676

 Total job time:  0.77s(wall), 0.76s(cpu)
        *  Thank you very much for using Q-Chem.  Have a nice day.  *
