 Q-Chem 5.3 (devel), Q-Chem, Inc., Pleasanton, CA (2020)
 Q-Chem 5.3.2 for Intel X86 EM64T Linux

User input:
--------------------------------------------------------------
$rem
gui                  2
basis                6-31g(d)
exchange             b3lyp
scf_convergence      11
$end

$molecule
0 1
C   -0.0000105292 0.0000006962 -0.0000178037
H   0.5766844102 0.7798733037 0.6052825084
H   0.5235734368 -0.1915343166 -0.9404885774
H   -1.0052896422 0.3737584792 -0.2121539026
H   -0.0697381211 -0.9279889972 0.5738454712
$end
--------------------------------------------------------------

             Standard Nuclear Orientation (Angstroms)
    I     Atom           X                Y                Z
 ----------------------------------------------------------------
    1      C       0.0050071341     0.0000036200    -0.0000021015
    2      H      -1.1383065331     0.0007643094     0.0002888890
    3      H       0.3700278174     0.4977127356     0.9024150103
    4      H       0.3695703491     0.5323683632    -0.8825915544
    5      H       0.3686655623    -1.0308671280    -0.0200997358
 ----------------------------------------------------------------

   11     -40.5169617423      2.19e-12  Convergence criterion met
 Total energy in the final basis set =      -40.5169617423

                    Orbital Energies (a.u.)
 --------------------------------------------------------------

 Alpha MOs
 -- Occupied --
-10.1721  -0.6868  -0.3897  -0.3897  -0.3816

          Ground-State Mulliken Net Atomic Charges

     Atom                 Charge (a.u.)
  ----------------------------------------
      1 C                    -0.622092
      2 H                     0.145508
      3 H                     0.158866
      4 H                     0.158871
      5 H                     0.158846
  ----------------------------------------
  Sum of atomic charges =     0.000000

                    Cartesian Multipole Moments
 -----------------------------------------------------------------
    Charge (ESU x 10^10)
                 0.0000
    Dipole Moment (Debye)
         X       0.0382      Y      -0.0000      Z      -0.0000
       Tot       0.0382
    Quadrupole Moments (Debye-Ang)
        XX      -8.2684     XY       0.0002     YY      -8.2924
        XZ       0.0000     YZ      -0.0000     ZZ      -8.2924

 Total job time:  0.79s(wall), 0.78s(cpu)
        *  Thank you very much for using Q-Chem.  Have a nice day.  *
