 Q-Chem 5.3 (devel), Q-Chem, Inc., Pleasanton, CA (2020)
 Q-Chem 5.3.2 for Intel X86 EM64T Linux

User input:
--------------------------------------------------------------
$rem
gui                  2
basis                6-31g(d)
exchange             b3lyp
scf_convergence      11
$end

$molecule
0 1
C   -0.0000105292 0.0000006962 -0.0000178037
H   0.6019047329 0.8139790977 0.6317538162
H   0.5235734368 -0.1915343166 -0.9404885774
H   -1.0052896422 0.3737584792 -0.2121539026
H   -0.0697381211 -0.9279889972 0.5738454712
$end
--------------------------------------------------------------

             Standard Nuclear Orientation (Angstroms)
    I     Atom           X                Y                Z
 ----------------------------------------------------------------
    1      C       0.0100071325     0.0000037046    -0.0000020776
    2      H      -1.1833067527     0.0003908633     0.0001469597
    3      H       0.3747411743     0.4979271974     0.9024126722
    4      H       0.3745032087     0.5324047141    -0.8825973843
    5      H       0.3740195749    -1.0307450025    -0.0199497818
 ----------------------------------------------------------------

   11     -40.5132064880      3.90e-12  Convergence criterion met
 Total energy in the final basis set =      -40.5132064880

                    Orbital Energies (a.u.)
 --------------------------------------------------------------

 Alpha MOs
 -- Occupied --
-10.1771  -0.6840  -0.3905  -0.3905  -0.3743

          Ground-State Mulliken Net Atomic Charges

     Atom                 Charge (a.u.)
  ----------------------------------------
      1 C                    -0.615023
      2 H                     0.133343
      3 H                     0.160565
      4 H                     0.160571
      5 H                     0.160545
  ----------------------------------------
  Sum of atomic charges =     0.000000

                    Cartesian Multipole Moments
 -----------------------------------------------------------------
    Charge (ESU x 10^10)
                -0.0000
    Dipole Moment (Debye)
         X       0.0815      Y      -0.0000      Z      -0.0000
       Tot       0.0815
    Quadrupole Moments (Debye-Ang)
        XX      -8.2860     XY       0.0002     YY      -8.3311
        XZ       0.0000     YZ      -0.0000     ZZ      -8.3311

 Total job time:  0.77s(wall), 0.77s(cpu)
        *  Thank you very much for using Q-Chem.  Have a nice day.  *
