 Q-Chem 5.3 (devel), Q-Chem, Inc., Pleasanton, CA (2020)
 Q-Chem 5.3.2 for Intel X86 EM64T Linux

User input:
--------------------------------------------------------------
$rem
gui                  2
basis                6-31g(d)
exchange             b3lyp
scf_convergence      11
$end

$molecule
0 1
C   -0.0000105292 0.0000006962 -0.0000178037
H   0.4505827966 0.6093443334 0.4729259697
H   0.5235734368 -0.1915343166 -0.9404885774
H   -1.0052896422 0.3737584792 -0.2121539026
H   -0.0697381211 -0.9279889972 0.5738454712
$end
--------------------------------------------------------------

             Standard Nuclear Orientation (Angstroms)
    I     Atom           X                Y                Z
 ----------------------------------------------------------------
    1      C      -0.0000031699    -0.0000022324     0.0199928699
    2      H       0.0001657870    -0.0000649466     0.9133068090
    3      H      -0.4982493714     0.9024088415    -0.3443093165
    4      H      -0.5324588259    -0.8826063860    -0.3444019465
    5      H       1.0305614295    -0.0197241142    -0.3445527657
 ----------------------------------------------------------------

   11     -40.4806936083      9.97e-12  Convergence criterion met
 Total energy in the final basis set =      -40.4806936083

                    Orbital Energies (a.u.)
 --------------------------------------------------------------

 Alpha MOs
 -- Occupied --
-10.1464  -0.7115  -0.4186  -0.3877  -0.3877

          Ground-State Mulliken Net Atomic Charges

     Atom                 Charge (a.u.)
  ----------------------------------------
      1 C                    -0.637905
      2 H                     0.192061
      3 H                     0.148614
      4 H                     0.148619
      5 H                     0.148610
  ----------------------------------------
  Sum of atomic charges =     0.000000

                    Cartesian Multipole Moments
 -----------------------------------------------------------------
    Charge (ESU x 10^10)
                -0.0000
    Dipole Moment (Debye)
         X      -0.0000      Y      -0.0000      Z       0.0897
       Tot       0.0897
    Quadrupole Moments (Debye-Ang)
        XX      -8.0619     XY       0.0000     YY      -8.0619
        XZ       0.0001     YZ      -0.0000     ZZ      -8.1813

 Total job time:  0.77s(wall), 0.77s(cpu)
        *  Thank you very much for using Q-Chem.  Have a nice day.  *
