 Q-Chem 5.3 (devel), Q-Chem, Inc., Pleasanton, CA (2020)
 Q-Chem 5.3.2 for Intel X86 EM64T Linux

User input:
--------------------------------------------------------------
$rem
gui                  2
basis                6-31g(d)
exchange             b3lyp
scf_convergence      11
$end

$molecule
0 1
C   -0.0000105292 0.0000006962 -0.0000178037
H   0.6523453784 0.8821906858 0.6846964317
H   0.5235734368 -0.1915343166 -0.9404885774
H   -1.0052896422 0.3737584792 -0.2121539026
H   -0.0697381211 -0.9279889972 0.5738454712
$end
--------------------------------------------------------------

             Standard Nuclear Orientation (Angstroms)
    I     Atom           X                Y                Z
 ----------------------------------------------------------------
    1      C       0.0200071317     0.0000038592    -0.0000020334
    2      H      -1.2733068078     0.0002037433     0.0000758754
    3      H       0.3845982369     0.4980341557     0.9024115395
    4      H       0.3844698083     0.5324229256    -0.8826002403
    5      H       0.3841959726    -1.0306839795    -0.0198749742
 ----------------------------------------------------------------

   11     -40.5010076801      5.07e-12  Convergence criterion met
 Total energy in the final basis set =      -40.5010076801

                    Orbital Energies (a.u.)
 --------------------------------------------------------------

 Alpha MOs
 -- Occupied --
-10.1866  -0.6801  -0.3922  -0.3922  -0.3600

          Ground-State Mulliken Net Atomic Charges

     Atom                 Charge (a.u.)
  ----------------------------------------
      1 C                    -0.598437
      2 H                     0.107777
      3 H                     0.163557
      4 H                     0.163564
      5 H                     0.163539
  ----------------------------------------
  Sum of atomic charges =     0.000000

                    Cartesian Multipole Moments
 -----------------------------------------------------------------
    Charge (ESU x 10^10)
                 0.0000
    Dipole Moment (Debye)
         X       0.1817      Y      -0.0000      Z      -0.0000
       Tot       0.1817
    Quadrupole Moments (Debye-Ang)
        XX      -8.3252     XY       0.0002     YY      -8.4020
        XZ       0.0000     YZ      -0.0000     ZZ      -8.4021

 Total job time:  0.79s(wall), 0.78s(cpu)
        *  Thank you very much for using Q-Chem.  Have a nice day.  *
