 Q-Chem 5.3 (devel), Q-Chem, Inc., Pleasanton, CA (2020)
 Q-Chem 5.3.2 for Intel X86 EM64T Linux

User input:
--------------------------------------------------------------
$rem
gui                  2
basis                6-31g(d)
exchange             b3lyp
scf_convergence      11
$end

$molecule
0 1
C   -0.0000105292 0.0000006962 -0.0000178037
H   0.6775657011 0.9162964799 0.7111677394
H   0.5235734368 -0.1915343166 -0.9404885774
H   -1.0052896422 0.3737584792 -0.2121539026
H   -0.0697381211 -0.9279889972 0.5738454712
$end
--------------------------------------------------------------

             Standard Nuclear Orientation (Angstroms)
    I     Atom           X                Y                Z
 ----------------------------------------------------------------
    1      C       0.0250071315     0.0000039316    -0.0000020126
    2      H      -1.3183068145     0.0001661409     0.0000616069
    3      H       0.3895697818     0.4980554764     0.9024113292
    4      H       0.3894631790     0.5324265868    -0.8826007921
    5      H       0.3892310647    -1.0306717936    -0.0198600686
 ----------------------------------------------------------------

   11     -40.4933997768      4.40e-12  Convergence criterion met
 Total energy in the final basis set =      -40.4933997768

                    Orbital Energies (a.u.)
 --------------------------------------------------------------

 Alpha MOs
 -- Occupied --
-10.1910  -0.6789  -0.3932  -0.3932  -0.3531

          Ground-State Mulliken Net Atomic Charges

     Atom                 Charge (a.u.)
  ----------------------------------------
      1 C                    -0.589229
      2 H                     0.094700
      3 H                     0.164846
      4 H                     0.164853
      5 H                     0.164829
  ----------------------------------------
  Sum of atomic charges =     0.000000

                    Cartesian Multipole Moments
 -----------------------------------------------------------------
    Charge (ESU x 10^10)
                 0.0000
    Dipole Moment (Debye)
         X       0.2375      Y      -0.0000      Z      -0.0000
       Tot       0.2375
    Quadrupole Moments (Debye-Ang)
        XX      -8.3479     XY       0.0002     YY      -8.4343
        XZ       0.0000     YZ      -0.0000     ZZ      -8.4344

 Total job time:  0.77s(wall), 0.76s(cpu)
        *  Thank you very much for using Q-Chem.  Have a nice day.  *
