                               Psi4 1.3.2 release

  ==> Input File <==

--------------------------------------------------------------------------
molecule {
2 1
Ca       -0.0189445819    0.0168856118    0.0029552556
--
-4 1
O         0.0059357732    0.0539462402    2.0666953554
C         1.1192677168    0.0565124029    2.6707956290
O         1.2573714505    0.0395244414    3.9053082702
C         2.3884653211    0.1278723578    1.8240492753
H         3.1314435353   -0.5492127077    2.2533000325
H         2.7767185111    1.1399567901    1.9619064517
N         2.1959491132   -0.1350066786    0.3964608780
C         2.7399855870    0.9263867367   -0.4406785973
H         2.8099384384    0.5688976476   -1.4702186279
H         3.7421857655    1.2387509233   -0.1326537005
C         2.5897052603   -1.4944006285    0.0129942865
H         2.6749552922   -1.5336926682   -1.0739775698
H         3.5697888367   -1.7626000133    0.4232645051
C         1.5535070376   -2.5061048344    0.4841153080
H         1.4573549177   -2.4562572045    1.5697776586
H         1.8934956444   -3.5174141170    0.2341259076
N         0.2426874615   -2.2169078213   -0.1065384835
C        -0.8986497874   -2.7109933035    0.6529204644
H        -0.6719353043   -2.6464020709    1.7193064090
H        -1.1376935237   -3.7548077148    0.4292616747
C         0.1689683890   -2.5815163035   -1.5231226018
H        -0.8081969643   -3.0209737048   -1.7379240610
H         0.9132956900   -3.3412529777   -1.7746027711
C         0.3135749725   -1.4133154654   -2.4968563041
O         0.5092072377   -1.6863795543   -3.6927709236
O         0.1881693623   -0.2414664394   -2.0325203989
C         1.8191836002    2.1528535142   -0.4809782972
O         2.3167054138    3.2405970779   -0.8091789340
O         0.5895630873    1.9703752935   -0.2125263301
C        -2.1472787881   -1.8468625277    0.4343522829
O        -3.2537365269   -2.3577093572    0.6653267987
O        -1.9679111967   -0.6429723725    0.0657648319

units angstrom
no_reorient
symmetry c1
}

set {
    basis def2-tzvp
}

energy("sapt0-ct")
--------------------------------------------------------------------------

  //              Dimer HF             //
    Molecular point group: c1
  Charge       = -2
  Multiplicity = 1
  Basis Set: DEF2-TZVP
    Blend: DEF2-TZVP
  Basis Set: (DEF2-TZVP AUX)
    Blend: DEF2-TZVP-JKFIT
  @DF-RHF Final Energy: -1770.84599424545104
    Total Energy =                      -1770.8459942454510383
  //     Monomer A HF (Dimer Basis)    //
    Molecular point group: c1
  Basis Set: DEF2-TZVP
    Blend: DEF2-TZVP
  Basis Set: (DEF2-TZVP AUX)
    Blend: DEF2-TZVP-JKFIT
  @DF-RHF Final Energy:  -676.14234919178500
    Total Energy =                       -676.1423491917850015
  //     Monomer B HF (Dimer Basis)    //
  Basis Set: DEF2-TZVP
    Blend: DEF2-TZVP
  Basis Set: (DEF2-TZVP AUX)
    Blend: DEF2-TZVP-JKFIT
  @DF-RHF Final Energy: -1093.30724016985232
    Total Energy =                      -1093.3072401698523208
  //    Monomer A HF (Monomer Basis)   //
  Multiplicity = 1
  Basis Set: DEF2-TZVP
    Blend: DEF2-TZVP
  Basis Set: (DEF2-TZVP AUX)
    Blend: DEF2-TZVP-JKFIT
  @DF-RHF Final Energy:  -676.14184455645125
    Total Energy =                       -676.1418445564513604
  //    Monomer B HF (Monomer Basis)   //
    Molecular point group: c1

    Geometry (in Angstrom), charge = -4, multiplicity = 1:

       Center              X                  Y                   Z               Mass
    ------------   -----------------  -----------------  -----------------  -----------------
         O           -0.493998333789     0.534127436661     2.007104338389    15.994914619570
         C            0.619333609811     0.536693599361     2.611204611989    12.000000000000
         O            0.757437343511     0.519705637861     3.845717253189    15.994914619570
         C            1.888531214111     0.608053554261     1.764458258289    12.000000000000
         H            2.631509428311    -0.069031511239     2.193709015489     1.007825032230
         H            2.276784404111     1.620137986561     1.902315434689     1.007825032230
         N            1.696015006211     0.345174517861     0.336869860989    14.003074004430
         C            2.240051480011     1.406567933161    -0.500269614311    12.000000000000
         H            2.310004331411     1.049078844061    -1.529809644911     1.007825032230
         H            3.242251658511     1.718932119761    -0.192244717511     1.007825032230
         C            2.089771153311    -1.014219432039    -0.046596730511    12.000000000000
         H            2.175021185211    -1.053511471739    -1.133568586811     1.007825032230
         H            3.069854729711    -1.282418816839     0.363673488089     1.007825032230
         C            1.053572930611    -2.025923637939     0.424524290989    12.000000000000
         H            0.957420810711    -1.976076008039     1.510186641589     1.007825032230
         H            1.393561537411    -3.037232920539     0.174534890589     1.007825032230
         N           -0.257246645489    -1.736726624839    -0.166129500511    14.003074004430
         C           -1.398583894389    -2.230812107039     0.593329447389    12.000000000000
         H           -1.171869411289    -2.166220874439     1.659715391989     1.007825032230
         H           -1.637627630689    -3.274626518339     0.369670657689     1.007825032230
         C           -0.330965717989    -2.101335107039    -1.582713618811    12.000000000000
         H           -1.308131071289    -2.540792508339    -1.797515078011     1.007825032230
         H            0.413361583011    -2.861071781239    -1.834193788111     1.007825032230
         C           -0.186359134489    -0.933134268939    -2.556447321111    12.000000000000
         O            0.009273130711    -1.206198357839    -3.752361940611    15.994914619570
         O           -0.311764744689     0.238714757061    -2.092111415911    15.994914619570
         C            1.319249493211     2.633034710661    -0.540569314211    12.000000000000
         O            1.816771306811     3.720778274361    -0.868769951011    15.994914619570
         O            0.089628980311     2.450556489961    -0.272117347111    15.994914619570
         C           -2.647212895089    -1.366681331239     0.374761265889    12.000000000000
         O           -3.753670633889    -1.877528160739     0.605735781689    15.994914619570
         O           -2.467845303689    -0.162791176039     0.006173814889    15.994914619570

  Charge       = -4
  Multiplicity = 1
  Basis Set: DEF2-TZVP
    Blend: DEF2-TZVP
  Basis Set: (DEF2-TZVP AUX)
    Blend: DEF2-TZVP-JKFIT

    Orbital Energies [Eh]
    ---------------------

    Doubly Occupied:

       1A    -19.982590     2A    -19.982447     3A    -19.974684
       4A    -19.974257     5A    -19.946084     6A    -19.945963
       7A    -19.935929     8A    -19.935685     9A    -15.062432
      10A    -15.062424    11A    -10.806404    12A    -10.806396
      13A    -10.801815    14A    -10.801156    15A    -10.799401
      16A    -10.799125    17A    -10.773980    18A    -10.773976
      19A    -10.766125    20A    -10.765937    21A     -0.856594
      22A     -0.855999    23A     -0.846763    24A     -0.846421
      25A     -0.762246    26A     -0.739695    27A     -0.730356
      28A     -0.729471    29A     -0.719400    30A     -0.714602
      31A     -0.556242    32A     -0.496310    33A     -0.494018
      34A     -0.446599    35A     -0.382448    36A     -0.330557
      37A     -0.231547    38A     -0.222639    39A     -0.212493
      40A     -0.210147    41A     -0.192493    42A     -0.175959
      43A     -0.150040    44A     -0.142403    45A     -0.141736
      46A     -0.124797    47A     -0.122224    48A     -0.108826
      49A     -0.107275    50A     -0.088124    51A     -0.083773
      52A     -0.077462    53A     -0.070687    54A     -0.068537
      55A     -0.058716    56A     -0.050796    57A     -0.043404
      58A     -0.038154    59A     -0.026611    60A     -0.008564
      61A     -0.004079    62A     -0.002796    63A     -0.000652
      64A      0.086525    65A      0.087491    66A      0.104686
      67A      0.108990    68A      0.125719    69A      0.128920
      70A      0.129076    71A      0.132464    72A      0.138562
      73A      0.147839    74A      0.149810    75A      0.150745
      76A      0.152074    77A      0.153783

  @DF-RHF Final Energy: -1093.30265989444729

   => Energetics <=

    Nuclear Repulsion Energy =           1711.8847894600867221
    One-Electron Energy =               -4992.0293568115785092
    Two-Electron Energy =                2186.8419074570442717
    Total Energy =                      -1093.3026598944475154

  Dipole Moment: [D]
     X:     9.0072      Y:    -8.7307      Z:     1.0771     Total:    12.5902

    SAPT Results
  --------------------------------------------------------------------------------------------------------
    Electrostatics              -1535.06428715 [mEh]    -963.26738305 [kcal/mol]   -4030.31073067 [kJ/mol]
      Elst10,r                  -1535.06428715 [mEh]    -963.26738305 [kcal/mol]   -4030.31073067 [kJ/mol]

    Exchange                      444.20306005 [mEh]     278.74162847 [kcal/mol]    1166.25497350 [kJ/mol]
      Exch10                      444.20306005 [mEh]     278.74162847 [kcal/mol]    1166.25497350 [kJ/mol]
      Exch10(S^2)                 432.22617072 [mEh]     271.22601694 [kcal/mol]    1134.80965489 [kJ/mol]

    Induction                    -310.62856745 [mEh]    -194.92236890 [kcal/mol]    -815.55519149 [kJ/mol]
      Ind20,r                    -496.59164690 [mEh]    -311.61596303 [kcal/mol]   -1303.80118930 [kJ/mol]
      Exch-Ind20,r                222.19391798 [mEh]     139.42878855 [kcal/mol]     583.37005128 [kJ/mol]
      delta HF,r (2)              -36.23083853 [mEh]     -22.73519442 [kcal/mol]     -95.12405346 [kJ/mol]

    Dispersion                    -32.75640547 [mEh]     -20.55495476 [kcal/mol]     -86.00193071 [kJ/mol]
      Disp20                      -40.38335742 [mEh]     -25.34093936 [kcal/mol]    -106.02649029 [kJ/mol]
      Exch-Disp20                   7.62695195 [mEh]       4.78598460 [kcal/mol]      20.02455958 [kJ/mol]
      Disp20 (SS)                 -20.19167871 [mEh]     -12.67046968 [kcal/mol]     -53.01324515 [kJ/mol]
      Disp20 (OS)                 -20.19167871 [mEh]     -12.67046968 [kcal/mol]     -53.01324515 [kJ/mol]
      Exch-Disp20 (SS)              3.52066080 [mEh]       2.20924800 [kcal/mol]       9.24349365 [kJ/mol]
      Exch-Disp20 (OS)              4.10629115 [mEh]       2.57673660 [kcal/mol]      10.78106593 [kJ/mol]

  Total HF                      -1401.48979455 [mEh]    -879.44812348 [kcal/mol]   -3679.61094866 [kJ/mol]
  Total SAPT0                   -1434.24620002 [mEh]    -900.00307824 [kcal/mol]   -3765.61287937 [kJ/mol]

  Special recipe for scaled SAPT0 (see Manual):
    Electrostatics sSAPT0       -1535.06428715 [mEh]    -963.26738305 [kcal/mol]   -4030.31073067 [kJ/mol]
    Exchange sSAPT0               444.20306005 [mEh]     278.74162847 [kcal/mol]    1166.25497350 [kJ/mol]
    Induction sSAPT0             -291.64118797 [mEh]    -183.00760840 [kcal/mol]    -765.70383353 [kJ/mol]
    Dispersion sSAPT0             -32.10465122 [mEh]     -20.14597279 [kcal/mol]     -84.29075016 [kJ/mol]
  Total sSAPT0                  -1414.60706629 [mEh]    -887.67933577 [kcal/mol]   -3714.05034085 [kJ/mol]
  --------------------------------------------------------------------------------------------------------

*** Psi4 exiting successfully. Buy a developer a beer!
