                               Psi4 1.3.2 release

  ==> Input File <==

--------------------------------------------------------------------------
molecule {
2 1
Mg        0.0568200754   -0.0340507487   -0.0241536722
--
-4 1
O        -0.0266333451   -0.0060214852    2.2942122857
C         1.0269754008    0.0129202493    2.9953916923
O         1.0573624107   -0.0977604490    4.2344439888
C         2.3596241929    0.2639608226    2.2856921716
H         3.1635561425   -0.2111629614    2.8569573893
H         2.5145038971    1.3433782314    2.3673182739
N         2.4176607442   -0.1187484848    0.8735315702
C         3.1674825911    0.8574762557    0.0910602416
H         3.4115669762    0.4189662405   -0.8797092364
H         4.1141373734    1.1370271339    0.5660796192
C         2.9173296471   -1.4862563181    0.6905601916
H         3.1891485562   -1.6127156332   -0.3580773736
H         3.8298079155   -1.6539823787    1.2772437380
C         1.8913877356   -2.5361434014    1.0829434647
H         1.6046453206   -2.3947792303    2.1256885698
H         2.3625700878   -3.5253335239    1.0164534456
N         0.6780693593   -2.4724222800    0.2604912448
C        -0.4722615912   -3.0916450357    0.9082307927
H        -0.4477093347   -2.8532230990    1.9745531057
H        -0.4633957757   -4.1838387038    0.8212005629
C         0.8878857548   -3.0171302831   -1.0810810247
H        -0.0606039110   -3.4111916099   -1.4560322841
H         1.5894218509   -3.8576305915   -1.0630492552
C         1.3341105049   -2.0166103716   -2.1497508729
O         1.9332069908   -2.4739861861   -3.1396755917
O         1.0142557700   -0.8013057071   -1.9967400321
C         2.3705987271    2.1291552057   -0.2211942199
O         3.0186263330    3.1575254362   -0.4842999709
O         1.1058168025    2.0461479272   -0.2403311654
C        -1.8170416944   -2.5600853818    0.3980975935
O        -2.8133043262   -3.2867204036    0.5591204716
O        -1.8429917341   -1.3986316291   -0.1093428981

units angstrom
no_reorient
symmetry c1
}

set {
    basis def2-tzvp
}

energy("sapt0-ct")
--------------------------------------------------------------------------

  //              Dimer HF             //
    Molecular point group: c1
  Charge       = -2
  Multiplicity = 1
  Basis Set: DEF2-TZVP
    Blend: DEF2-TZVP
  Basis Set: (DEF2-TZVP AUX)
    Blend: DEF2-TZVP-JKFIT
  @DF-RHF Final Energy: -1293.73799651891341
    Total Energy =                      -1293.7379965189134055
  //     Monomer A HF (Dimer Basis)    //
    Molecular point group: c1
  Basis Set: DEF2-TZVP
    Blend: DEF2-TZVP
  Basis Set: (DEF2-TZVP AUX)
    Blend: DEF2-TZVP-JKFIT
  @DF-RHF Final Energy:  -198.82322080425675
    Total Energy =                       -198.8232208042567777
  //     Monomer B HF (Dimer Basis)    //
  Basis Set: DEF2-TZVP
    Blend: DEF2-TZVP
  Basis Set: (DEF2-TZVP AUX)
    Blend: DEF2-TZVP-JKFIT
  @DF-RHF Final Energy: -1093.36862479772117
    Total Energy =                      -1093.3686247977211679
  //    Monomer A HF (Monomer Basis)   //
  Multiplicity = 1
  Basis Set: DEF2-TZVP
    Blend: DEF2-TZVP
  Basis Set: (DEF2-TZVP AUX)
    Blend: DEF2-TZVP-JKFIT
  @DF-RHF Final Energy:  -198.82300763310934
    Total Energy =                       -198.8230076331093414
  //    Monomer B HF (Monomer Basis)   //
    Molecular point group: c1

    Geometry (in Angstrom), charge = -4, multiplicity = 1:

       Center              X                  Y                   Z               Mass
    ------------   -----------------  -----------------  -----------------  -----------------
         O           -0.952243048553     0.766811265815     1.965754588523    15.994914619570
         C            0.101365697347     0.785753000315     2.666933995123    12.000000000000
         O            0.131752707247     0.675072302015     3.905986291623    15.994914619570
         C            1.434014489447     1.036793573615     1.957234474423    12.000000000000
         H            2.237946439047     0.561669789615     2.528499692123     1.007825032230
         H            1.588894193647     2.116210982415     2.038860576723     1.007825032230
         N            1.492051040747     0.654084266215     0.545073873023    14.003074004430
         C            2.241872887647     1.630309006715    -0.237397455577    12.000000000000
         H            2.485957272747     1.191798991515    -1.208166933577     1.007825032230
         H            3.188527669947     1.909859884915     0.237621922023     1.007825032230
         C            1.991719943647    -0.713423567085     0.362102494423    12.000000000000
         H            2.263538852747    -0.839882882185    -0.686535070777     1.007825032230
         H            2.904198212047    -0.881149627685     0.948786040823     1.007825032230
         C            0.965778032147    -1.763310650385     0.754485767523    12.000000000000
         H            0.679035617147    -1.621946479285     1.797230872623     1.007825032230
         H            1.436960384347    -2.752500772885     0.687995748423     1.007825032230
         N           -0.247540344153    -1.699589528985    -0.067966452377    14.003074004430
         C           -1.397871294653    -2.318812284685     0.579773095523    12.000000000000
         H           -1.373319038153    -2.080390347985     1.646095408523     1.007825032230
         H           -1.389005479153    -3.411005952785     0.492742865723     1.007825032230
         C           -0.037723948653    -2.244297532085    -1.409538721877    12.000000000000
         H           -0.986213614453    -2.638358858885    -1.784489981277     1.007825032230
         H            0.663812147447    -3.084797840485    -1.391506952377     1.007825032230
         C            0.408500801447    -1.243777620585    -2.478208570077    12.000000000000
         O            1.007597287347    -1.701153435085    -3.468133288877    15.994914619570
         O            0.088646066547    -0.028472956085    -2.325197729277    15.994914619570
         C            1.444989023647     2.901987956715    -0.549651917077    12.000000000000
         O            2.093016629547     3.930358187215    -0.812757668077    15.994914619570
         O            0.180207099047     2.818980678215    -0.568788862577    15.994914619570
         C           -2.742651397853    -1.787252630785     0.069639896323    12.000000000000
         O           -3.738914029653    -2.513887652585     0.230662774423    15.994914619570
         O           -2.768601437553    -0.625798878085    -0.437800595277    15.994914619570

  Charge       = -4
  Multiplicity = 1
  Basis Set: DEF2-TZVP
    Blend: DEF2-TZVP
  Basis Set: (DEF2-TZVP AUX)
    Blend: DEF2-TZVP-JKFIT

    Orbital Energies [Eh]
    ---------------------

    Doubly Occupied:

       1A    -19.997459     2A    -19.996574     3A    -19.994145
       4A    -19.993682     5A    -19.965873     6A    -19.965000
       7A    -19.963350     8A    -19.963108     9A    -15.073210
      10A    -15.073188    11A    -10.824304    12A    -10.823450
      13A    -10.822070    14A    -10.821849    15A    -10.803493
      16A    -10.802708    17A    -10.781097    18A    -10.781010
      19A    -10.776619    20A    -10.776303    21A     -0.871592
      22A     -0.870628    23A     -0.867389    24A     -0.867069
      25A     -0.771134    26A     -0.755047    27A     -0.749466
      28A     -0.748567    29A     -0.744924    30A     -0.735269
      31A     -0.561599    32A     -0.505070    33A     -0.503008
      34A     -0.453844    35A     -0.392727    36A     -0.336969
      37A     -0.241979    38A     -0.229596    39A     -0.228410
      40A     -0.223190    41A     -0.206362    42A     -0.179041
      43A     -0.163557    44A     -0.154436    45A     -0.151645
      46A     -0.138079    47A     -0.128805    48A     -0.123356
      49A     -0.120873    50A     -0.096615    51A     -0.095496
      52A     -0.092658    53A     -0.084667    54A     -0.080279
      55A     -0.074795    56A     -0.069175    57A     -0.060260
      58A     -0.057348    59A     -0.037869    60A     -0.023170
      61A     -0.021160    62A     -0.019075    63A     -0.006589
      64A      0.075548    65A      0.078006    66A      0.087733
      67A      0.091040    68A      0.109642    69A      0.110026
      70A      0.111412    71A      0.114334    72A      0.117975
      73A      0.119580    74A      0.120853    75A      0.121698
      76A      0.127594    77A      0.133172

  @DF-RHF Final Energy: -1093.36611200743801

   => Energetics <=

    Nuclear Repulsion Energy =           1674.5280748740974559
    One-Electron Energy =               -4915.1430551862122229
    Two-Electron Energy =                2147.2488683046767619
    Total Energy =                      -1093.3661120074380051

  Dipole Moment: [D]
     X:     8.4293      Y:    -7.0764      Z:     3.2121     Total:    11.4650

    SAPT Results
  --------------------------------------------------------------------------------------------------------
    Electrostatics              -1349.23974113 [mEh]    -846.66071996 [kcal/mol]   -3542.42845230 [kJ/mol]
      Elst10,r                  -1349.23974113 [mEh]    -846.66071996 [kcal/mol]   -3542.42845230 [kJ/mol]

    Exchange                       38.10767419 [mEh]      23.91292658 [kcal/mol]     100.05168479 [kJ/mol]
      Exch10                       38.10767419 [mEh]      23.91292658 [kcal/mol]     100.05168479 [kJ/mol]
      Exch10(S^2)                  38.02587165 [mEh]      23.86159471 [kcal/mol]      99.83691227 [kJ/mol]

    Induction                    -237.74481142 [mEh]    -149.18712151 [kcal/mol]    -624.19891639 [kJ/mol]
      Ind20,r                    -248.29412354 [mEh]    -155.80691481 [kcal/mol]    -651.89613155 [kJ/mol]
      Exch-Ind20,r                 23.95966511 [mEh]      15.03491684 [kcal/mol]      62.90609207 [kJ/mol]
      delta HF,r (2)              -13.41035299 [mEh]      -8.41512355 [kcal/mol]     -35.20887692 [kJ/mol]

    Dispersion                     -2.69483813 [mEh]      -1.69103646 [kcal/mol]      -7.07529653 [kJ/mol]
      Disp20                       -2.76801089 [mEh]      -1.73695306 [kcal/mol]      -7.26741160 [kJ/mol]
      Exch-Disp20                   0.07317277 [mEh]       0.04591660 [kcal/mol]       0.19211507 [kJ/mol]
      Disp20 (SS)                  -1.38400545 [mEh]      -0.86847653 [kcal/mol]      -3.63370580 [kJ/mol]
      Disp20 (OS)                  -1.38400545 [mEh]      -0.86847653 [kcal/mol]      -3.63370580 [kJ/mol]
      Exch-Disp20 (SS)              0.00468143 [mEh]       0.00293764 [kcal/mol]       0.01229110 [kJ/mol]
      Exch-Disp20 (OS)              0.06849133 [mEh]       0.04297896 [kcal/mol]       0.17982397 [kJ/mol]

  Total HF                      -1548.87687837 [mEh]    -971.93491489 [kcal/mol]   -4066.57568390 [kJ/mol]
  Total SAPT0                   -1551.57171649 [mEh]    -973.62595135 [kcal/mol]   -4073.65098043 [kJ/mol]

  Special recipe for scaled SAPT0 (see Manual):
    Electrostatics sSAPT0       -1349.23974113 [mEh]    -846.66071996 [kcal/mol]   -3542.42845230 [kJ/mol]
    Exchange sSAPT0                38.10767419 [mEh]      23.91292658 [kcal/mol]     100.05168479 [kJ/mol]
    Induction sSAPT0             -237.58985003 [mEh]    -149.08988177 [kcal/mol]    -623.79206531 [kJ/mol]
    Dispersion sSAPT0              -2.69436488 [mEh]      -1.69073949 [kcal/mol]      -7.07405401 [kJ/mol]
  Total sSAPT0                  -1551.41628185 [mEh]    -973.52841463 [kcal/mol]   -4073.24288683 [kJ/mol]
  --------------------------------------------------------------------------------------------------------

*** Psi4 exiting successfully. Buy a developer a beer!
