                               Psi4 1.3.2 release

  ==> Input File <==

--------------------------------------------------------------------------
molecule {
-4 1
N        -0.0324984852    0.0252128278    0.0699954673
C         0.1506536946   -0.3081988937    1.4716845700
H         1.1455545203    0.0194833539    1.7848372542
H        -0.5650438531    0.2345867247    2.1088665011
C         0.3550627868    1.4086427958   -0.1533771928
H         0.0038545828    1.7274193963   -1.1384350129
H        -0.1329463486    2.0806924431    0.5696898691
C        -1.4291262298   -0.1685815636   -0.3211457997
H        -1.8068528298   -1.0580393262    0.1826594771
H        -2.0436790826    0.6738040234    0.0308801807
C         0.0724299417   -1.7919041577    1.8461324197
O         0.1711403738   -2.6726401260    0.9606329382
O        -0.0533235787   -2.0203571865    3.0781819616
C         1.8553097761    1.7207302287   -0.1344518743
O         2.6930402300    0.7963198648   -0.2486534805
O         2.1398875239    2.9436075215   -0.0382700812
C        -1.5747200061   -0.3546924637   -1.8333224495
H        -0.8842953151    0.3097403819   -2.3542008403
H        -1.2671273186   -1.3734446361   -2.0836362010
N        -2.9052815053   -0.1251306163   -2.3922940045
C        -3.9111416499   -0.9488401615   -1.7480460843
H        -3.5008057640   -1.9555945089   -1.6234488046
H        -4.1657940835   -0.5944795093   -0.7388948454
C        -3.2785023362    1.2787867895   -2.3579740846
H        -4.3022776092    1.3704477410   -2.7318230966
H        -3.2868285175    1.6908536856   -1.3401764834
C        -2.4405533913    2.2194702267   -3.2330239761
O        -1.9169566100    1.7842285710   -4.2856389965
O        -2.3845644241    3.4156081414   -2.8442275563
C        -5.2358181920   -1.1360874203   -2.5007302897
O        -5.3173526866   -0.8516830540   -3.7178788560
O        -6.1711829317   -1.6192883084   -1.8096603014

units angstrom
no_reorient
symmetry c1
}

set {
    basis def2-tzvp
}

energy("hf")
--------------------------------------------------------------------------

    Molecular point group: c1

    Geometry (in Angstrom), charge = -4, multiplicity = 1:

       Center              X                  Y                   Z               Mass
    ------------   -----------------  -----------------  -----------------  -----------------
         N            1.428025945705    -0.159424013176     1.076469897954    14.003074004430
         C            1.611178125505    -0.492835734676     2.478159000654    12.000000000000
         H            2.606078951205    -0.165153487076     2.791311684854     1.007825032230
         H            0.895480577805     0.049949883724     3.115340931754     1.007825032230
         C            1.815587217705     1.224005954824     0.853097237854    12.000000000000
         H            1.464379013705     1.542782555324    -0.131960582246     1.007825032230
         H            1.327578082305     1.896055602124     1.576164299754     1.007825032230
         C            0.031398201105    -0.353218404576     0.685328630954    12.000000000000
         H           -0.346328398895    -1.242676167176     1.189133907754     1.007825032230
         H           -0.583154651695     0.489167182424     1.037354611354     1.007825032230
         C            1.532954372605    -1.976540998676     2.852606850354    12.000000000000
         O            1.631664804705    -2.857276966976     1.967107368854    15.994914619570
         O            1.407200852205    -2.204994027476     4.084656392254    15.994914619570
         C            3.315834207005     1.536093387724     0.872022556354    12.000000000000
         O            4.153564660905     0.611683023824     0.757820950154    15.994914619570
         O            3.600411954805     2.758970680524     0.968204349454    15.994914619570
         C           -0.114195575195    -0.539329304676    -0.826848018846    12.000000000000
         H            0.576229115805     0.125103540924    -1.347726409646     1.007825032230
         H            0.193397112305    -1.558081477076    -1.077161770346     1.007825032230
         N           -1.444757074395    -0.309767457276    -1.385819573846    14.003074004430
         C           -2.450617218995    -1.133477002476    -0.741571653646    12.000000000000
         H           -2.040281333095    -2.140231349876    -0.616974373946     1.007825032230
         H           -2.705269652595    -0.779116350276     0.267579585254     1.007825032230
         C           -1.817977905295     1.094149948524    -1.351499653946    12.000000000000
         H           -2.841753178295     1.185810900024    -1.725348665946     1.007825032230
         H           -1.826304086595     1.506216844624    -0.333702052746     1.007825032230
         C           -0.980028960395     2.034833385724    -2.226549545446    12.000000000000
         O           -0.456432179095     1.599591730024    -3.279164565846    15.994914619570
         O           -0.924039993195     3.230971300424    -1.837753125646    15.994914619570
         C           -3.775293761095    -1.320724261276    -1.494255859046    12.000000000000
         O           -3.856828255695    -1.036319894976    -2.711404425346    15.994914619570
         O           -4.710658500795    -1.803925149376    -0.803185870746    15.994914619570

  Charge       = -4
  Multiplicity = 1
  Basis Set: DEF2-TZVP
    Blend: DEF2-TZVP
  Basis Set: (DEF2-TZVP AUX)
    Blend: DEF2-TZVP-JKFIT

    Orbital Energies [Eh]
    ---------------------

    Doubly Occupied:

       1A    -20.045164     2A    -20.041848     3A    -20.038425
       4A    -20.033896     5A    -20.030135     6A    -20.029092
       7A    -20.025740     8A    -20.022525     9A    -15.106325
      10A    -15.104904    11A    -10.884662    12A    -10.877980
      13A    -10.871749    14A    -10.867222    15A    -10.815798
      16A    -10.808827    17A    -10.808167    18A    -10.805445
      19A    -10.802323    20A    -10.801517    21A     -0.927160
      22A     -0.919839    23A     -0.913303    24A     -0.907612
      25A     -0.819148    26A     -0.812129    27A     -0.805833
      28A     -0.800976    29A     -0.796379    30A     -0.779906
      31A     -0.572225    32A     -0.539347    33A     -0.534422
      34A     -0.485035    35A     -0.415613    36A     -0.365458
      37A     -0.281646    38A     -0.270313    39A     -0.267895
      40A     -0.256796    41A     -0.224616    42A     -0.212164
      43A     -0.205043    44A     -0.195967    45A     -0.191899
      46A     -0.183720    47A     -0.164055    48A     -0.157039
      49A     -0.147459    50A     -0.145333    51A     -0.141208
      52A     -0.137611    53A     -0.128225    54A     -0.124442
      55A     -0.115687    56A     -0.109905    57A     -0.094789
      58A     -0.093458    59A     -0.081012    60A     -0.069688
      61A     -0.051097    62A     -0.044616    63A     -0.036962
      64A      0.033609    65A      0.039062    66A      0.040563
      67A      0.044932    68A      0.046393    69A      0.049770
      70A      0.053183    71A      0.054233    72A      0.055393
      73A      0.059928    74A      0.060422    75A      0.066922
      76A      0.072515    77A      0.094926

  @DF-RHF Final Energy: -1093.51991697453059

   => Energetics <=

    Nuclear Repulsion Energy =           1569.5536990733276070
    One-Electron Energy =               -4698.9919269065239860
    Two-Electron Energy =                2035.9183108586657909
    Total Energy =                      -1093.5199169745305880

  Dipole Moment: [D]
     X:    -2.2704      Y:    -0.0363      Z:     2.4779     Total:     3.3610

*** Psi4 exiting successfully. Buy a developer a beer!
