                               Psi4 1.3.2 release

  ==> Input File <==

--------------------------------------------------------------------------
molecule {
2 1
Ca        0.0568200754   -0.0340507487   -0.0241536722
--
-4 1
O        -0.0266333451   -0.0060214852    2.2942122857
C         1.0269754008    0.0129202493    2.9953916923
O         1.0573624107   -0.0977604490    4.2344439888
C         2.3596241929    0.2639608226    2.2856921716
H         3.1635561425   -0.2111629614    2.8569573893
H         2.5145038971    1.3433782314    2.3673182739
N         2.4176607442   -0.1187484848    0.8735315702
C         3.1674825911    0.8574762557    0.0910602416
H         3.4115669762    0.4189662405   -0.8797092364
H         4.1141373734    1.1370271339    0.5660796192
C         2.9173296471   -1.4862563181    0.6905601916
H         3.1891485562   -1.6127156332   -0.3580773736
H         3.8298079155   -1.6539823787    1.2772437380
C         1.8913877356   -2.5361434014    1.0829434647
H         1.6046453206   -2.3947792303    2.1256885698
H         2.3625700878   -3.5253335239    1.0164534456
N         0.6780693593   -2.4724222800    0.2604912448
C        -0.4722615912   -3.0916450357    0.9082307927
H        -0.4477093347   -2.8532230990    1.9745531057
H        -0.4633957757   -4.1838387038    0.8212005629
C         0.8878857548   -3.0171302831   -1.0810810247
H        -0.0606039110   -3.4111916099   -1.4560322841
H         1.5894218509   -3.8576305915   -1.0630492552
C         1.3341105049   -2.0166103716   -2.1497508729
O         1.9332069908   -2.4739861861   -3.1396755917
O         1.0142557700   -0.8013057071   -1.9967400321
C         2.3705987271    2.1291552057   -0.2211942199
O         3.0186263330    3.1575254362   -0.4842999709
O         1.1058168025    2.0461479272   -0.2403311654
C        -1.8170416944   -2.5600853818    0.3980975935
O        -2.8133043262   -3.2867204036    0.5591204716
O        -1.8429917341   -1.3986316291   -0.1093428981

units angstrom
no_reorient
symmetry c1
}

set {
    basis def2-tzvp
}

energy("sapt0-ct")
--------------------------------------------------------------------------

  //              Dimer HF             //
    Molecular point group: c1
  Charge       = -2
  Multiplicity = 1
  Basis Set: DEF2-TZVP
    Blend: DEF2-TZVP
  Basis Set: (DEF2-TZVP AUX)
    Blend: DEF2-TZVP-JKFIT
  @DF-RHF Final Energy: -1770.94756980140733
    Total Energy =                      -1770.9475698014075533
  //     Monomer A HF (Dimer Basis)    //
    Molecular point group: c1
  Basis Set: DEF2-TZVP
    Blend: DEF2-TZVP
  Basis Set: (DEF2-TZVP AUX)
    Blend: DEF2-TZVP-JKFIT
  @DF-RHF Final Energy:  -676.14226923187141
    Total Energy =                       -676.1422692318715235
  //     Monomer B HF (Dimer Basis)    //
  Basis Set: DEF2-TZVP
    Blend: DEF2-TZVP
  Basis Set: (DEF2-TZVP AUX)
    Blend: DEF2-TZVP-JKFIT
  @DF-RHF Final Energy: -1093.36979686312156
    Total Energy =                      -1093.3697968631213371
  //    Monomer A HF (Monomer Basis)   //
  Multiplicity = 1
  Basis Set: DEF2-TZVP
    Blend: DEF2-TZVP
  Basis Set: (DEF2-TZVP AUX)
    Blend: DEF2-TZVP-JKFIT
  @DF-RHF Final Energy:  -676.14184455644806
    Total Energy =                       -676.1418445564480635
  //    Monomer B HF (Monomer Basis)   //
    Molecular point group: c1

    Geometry (in Angstrom), charge = -4, multiplicity = 1:

       Center              X                  Y                   Z               Mass
    ------------   -----------------  -----------------  -----------------  -----------------
         O           -0.909925366050     0.730826096099     1.982929857995    15.994914619570
         C            0.143683379850     0.749767830599     2.684109264595    12.000000000000
         O            0.174070389750     0.639087132299     3.923161561095    15.994914619570
         C            1.476332171950     1.000808403899     1.974409743895    12.000000000000
         H            2.280264121550     0.525684619899     2.545674961595     1.007825032230
         H            1.631211876150     2.080225812699     2.056035846195     1.007825032230
         N            1.534368723250     0.618099096499     0.562249142495    14.003074004430
         C            2.284190570150     1.594323836999    -0.220222186105    12.000000000000
         H            2.528274955250     1.155813821799    -1.190991664105     1.007825032230
         H            3.230845352450     1.873874715199     0.254797191495     1.007825032230
         C            2.034037626150    -0.749408736801     0.379277763895    12.000000000000
         H            2.305856535250    -0.875868051901    -0.669359801305     1.007825032230
         H            2.946515894550    -0.917134797401     0.965961310295     1.007825032230
         C            1.008095714650    -1.799295820101     0.771661036995    12.000000000000
         H            0.721353299650    -1.657931649001     1.814406142095     1.007825032230
         H            1.479278066850    -2.788485942601     0.705171017895     1.007825032230
         N           -0.205222661650    -1.735574698701    -0.050791182905    14.003074004430
         C           -1.355553612150    -2.354797454401     0.596948364995    12.000000000000
         H           -1.331001355650    -2.116375517701     1.663270677995     1.007825032230
         H           -1.346687796650    -3.446991122501     0.509918135195     1.007825032230
         C            0.004593733850    -2.280282701801    -1.392363452405    12.000000000000
         H           -0.943895931950    -2.674344028601    -1.767314711805     1.007825032230
         H            0.706129829950    -3.120783010201    -1.374331682905     1.007825032230
         C            0.450818483950    -1.279762790301    -2.461033300605    12.000000000000
         O            1.049914969850    -1.737138604801    -3.450958019405    15.994914619570
         O            0.130963749050    -0.064458125801    -2.308022459805    15.994914619570
         C            1.487306706150     2.866002786999    -0.532476647605    12.000000000000
         O            2.135334312050     3.894373017499    -0.795582398605    15.994914619570
         O            0.222524781550     2.782995508499    -0.551613593105    15.994914619570
         C           -2.700333715350    -1.823237800501     0.086815165795    12.000000000000
         O           -3.696596347150    -2.549872822301     0.247838043895    15.994914619570
         O           -2.726283755050    -0.661784047801    -0.420625325805    15.994914619570

  Charge       = -4
  Multiplicity = 1
  Basis Set: DEF2-TZVP
    Blend: DEF2-TZVP
  Basis Set: (DEF2-TZVP AUX)
    Blend: DEF2-TZVP-JKFIT

    Orbital Energies [Eh]
    ---------------------

    Doubly Occupied:

       1A    -19.997459     2A    -19.996574     3A    -19.994145
       4A    -19.993682     5A    -19.965873     6A    -19.965000
       7A    -19.963350     8A    -19.963108     9A    -15.073210
      10A    -15.073188    11A    -10.824304    12A    -10.823450
      13A    -10.822070    14A    -10.821849    15A    -10.803493
      16A    -10.802708    17A    -10.781097    18A    -10.781010
      19A    -10.776619    20A    -10.776303    21A     -0.871592
      22A     -0.870628    23A     -0.867389    24A     -0.867069
      25A     -0.771134    26A     -0.755047    27A     -0.749466
      28A     -0.748567    29A     -0.744924    30A     -0.735269
      31A     -0.561599    32A     -0.505070    33A     -0.503008
      34A     -0.453844    35A     -0.392727    36A     -0.336969
      37A     -0.241979    38A     -0.229596    39A     -0.228410
      40A     -0.223190    41A     -0.206362    42A     -0.179041
      43A     -0.163557    44A     -0.154436    45A     -0.151645
      46A     -0.138079    47A     -0.128805    48A     -0.123356
      49A     -0.120873    50A     -0.096615    51A     -0.095496
      52A     -0.092658    53A     -0.084667    54A     -0.080279
      55A     -0.074795    56A     -0.069175    57A     -0.060260
      58A     -0.057348    59A     -0.037869    60A     -0.023170
      61A     -0.021160    62A     -0.019075    63A     -0.006589
      64A      0.075548    65A      0.078006    66A      0.087733
      67A      0.091040    68A      0.109642    69A      0.110026
      70A      0.111412    71A      0.114334    72A      0.117975
      73A      0.119580    74A      0.120853    75A      0.121698
      76A      0.127594    77A      0.133172

  @DF-RHF Final Energy: -1093.36611201624737

   => Energetics <=

    Nuclear Repulsion Energy =           1674.5280748740976833
    One-Electron Energy =               -4915.1430551877410835
    Two-Electron Energy =                2147.2488682973958021
    Total Energy =                      -1093.3661120162473708

  Dipole Moment: [D]
     X:     7.6163      Y:    -6.3850      Z:     2.8821     Total:    10.3481

    SAPT Results
  --------------------------------------------------------------------------------------------------------
    Electrostatics              -1375.23777030 [mEh]    -862.97472956 [kcal/mol]   -3610.68626848 [kJ/mol]
      Elst10,r                  -1375.23777030 [mEh]    -862.97472956 [kcal/mol]   -3610.68626848 [kJ/mol]

    Exchange                      163.73990077 [mEh]     102.74833897 [kcal/mol]     429.89905024 [kJ/mol]
      Exch10                      163.73990077 [mEh]     102.74833897 [kcal/mol]     429.89905024 [kJ/mol]
      Exch10(S^2)                 161.95254565 [mEh]     101.62675670 [kcal/mol]     425.20635003 [kJ/mol]

    Induction                    -228.11535918 [mEh]    -143.14454900 [kcal/mol]    -598.91679301 [kJ/mol]
      Ind20,r                    -283.92276846 [mEh]    -178.16422703 [kcal/mol]    -745.43912588 [kJ/mol]
      Exch-Ind20,r                 77.55612877 [mEh]      48.66720555 [kcal/mol]     203.62358804 [kJ/mol]
      delta HF,r (2)              -21.74871949 [mEh]     -13.64752752 [kcal/mol]     -57.10125516 [kJ/mol]

    Dispersion                    -19.33079591 [mEh]     -12.13025757 [kcal/mol]     -50.75299767 [kJ/mol]
      Disp20                      -21.07898056 [mEh]     -13.22726000 [kcal/mol]     -55.34285584 [kJ/mol]
      Exch-Disp20                   1.74818465 [mEh]       1.09700243 [kcal/mol]       4.58985817 [kJ/mol]
      Disp20 (SS)                 -10.53949028 [mEh]      -6.61363000 [kcal/mol]     -27.67142792 [kJ/mol]
      Disp20 (OS)                 -10.53949028 [mEh]      -6.61363000 [kcal/mol]     -27.67142792 [kJ/mol]
      Exch-Disp20 (SS)              0.67140829 [mEh]       0.42131507 [kcal/mol]       1.76278223 [kJ/mol]
      Exch-Disp20 (OS)              1.07677636 [mEh]       0.67568737 [kcal/mol]       2.82707594 [kJ/mol]

  Total HF                      -1439.61322871 [mEh]    -903.37093959 [kcal/mol]   -3779.70401125 [kJ/mol]
  Total SAPT0                   -1458.94402462 [mEh]    -915.50119716 [kcal/mol]   -3830.45700892 [kJ/mol]

  Special recipe for scaled SAPT0 (see Manual):
    Electrostatics sSAPT0       -1375.23777030 [mEh]    -862.97472956 [kcal/mol]   -3610.68626848 [kJ/mol]
    Exchange sSAPT0               163.73990077 [mEh]     102.74833897 [kcal/mol]     429.89905024 [kJ/mol]
    Induction sSAPT0             -225.51912041 [mEh]    -141.51538458 [kcal/mol]    -592.10036907 [kJ/mol]
    Dispersion sSAPT0             -19.27227436 [mEh]     -12.09353474 [kcal/mol]     -50.59934937 [kJ/mol]
  Total sSAPT0                  -1456.28926431 [mEh]    -913.83530991 [kcal/mol]   -3823.48693668 [kJ/mol]
  --------------------------------------------------------------------------------------------------------

*** Psi4 exiting successfully. Buy a developer a beer!
