                               Psi4 1.3.2 release

  ==> Input File <==

--------------------------------------------------------------------------
molecule {
2 1
Mg       -0.0189445819    0.0168856118    0.0029552556
--
-4 1
O         0.0059357732    0.0539462402    2.0666953554
C         1.1192677168    0.0565124029    2.6707956290
O         1.2573714505    0.0395244414    3.9053082702
C         2.3884653211    0.1278723578    1.8240492753
H         3.1314435353   -0.5492127077    2.2533000325
H         2.7767185111    1.1399567901    1.9619064517
N         2.1959491132   -0.1350066786    0.3964608780
C         2.7399855870    0.9263867367   -0.4406785973
H         2.8099384384    0.5688976476   -1.4702186279
H         3.7421857655    1.2387509233   -0.1326537005
C         2.5897052603   -1.4944006285    0.0129942865
H         2.6749552922   -1.5336926682   -1.0739775698
H         3.5697888367   -1.7626000133    0.4232645051
C         1.5535070376   -2.5061048344    0.4841153080
H         1.4573549177   -2.4562572045    1.5697776586
H         1.8934956444   -3.5174141170    0.2341259076
N         0.2426874615   -2.2169078213   -0.1065384835
C        -0.8986497874   -2.7109933035    0.6529204644
H        -0.6719353043   -2.6464020709    1.7193064090
H        -1.1376935237   -3.7548077148    0.4292616747
C         0.1689683890   -2.5815163035   -1.5231226018
H        -0.8081969643   -3.0209737048   -1.7379240610
H         0.9132956900   -3.3412529777   -1.7746027711
C         0.3135749725   -1.4133154654   -2.4968563041
O         0.5092072377   -1.6863795543   -3.6927709236
O         0.1881693623   -0.2414664394   -2.0325203989
C         1.8191836002    2.1528535142   -0.4809782972
O         2.3167054138    3.2405970779   -0.8091789340
O         0.5895630873    1.9703752935   -0.2125263301
C        -2.1472787881   -1.8468625277    0.4343522829
O        -3.2537365269   -2.3577093572    0.6653267987
O        -1.9679111967   -0.6429723725    0.0657648319

units angstrom
no_reorient
symmetry c1
}

set {
    basis def2-tzvp
}

energy("sapt0-ct")
--------------------------------------------------------------------------

  //              Dimer HF             //
    Molecular point group: c1
  Charge       = -2
  Multiplicity = 1
  Basis Set: DEF2-TZVP
    Blend: DEF2-TZVP
  Basis Set: (DEF2-TZVP AUX)
    Blend: DEF2-TZVP-JKFIT
  @DF-RHF Final Energy: -1293.77483727355957
    Total Energy =                      -1293.7748372735595694
  //     Monomer A HF (Dimer Basis)    //
    Molecular point group: c1
  Basis Set: DEF2-TZVP
    Blend: DEF2-TZVP
  Basis Set: (DEF2-TZVP AUX)
    Blend: DEF2-TZVP-JKFIT
  @DF-RHF Final Energy:  -198.82328722655225
    Total Energy =                       -198.8232872265522246
  //     Monomer B HF (Dimer Basis)    //
  Basis Set: DEF2-TZVP
    Blend: DEF2-TZVP
  Basis Set: (DEF2-TZVP AUX)
    Blend: DEF2-TZVP-JKFIT
  @DF-RHF Final Energy: -1093.30612894430283
    Total Energy =                      -1093.3061289443025998
  //    Monomer A HF (Monomer Basis)   //
  Multiplicity = 1
  Basis Set: DEF2-TZVP
    Blend: DEF2-TZVP
  Basis Set: (DEF2-TZVP AUX)
    Blend: DEF2-TZVP-JKFIT
  @DF-RHF Final Energy:  -198.82300763312750
    Total Energy =                       -198.8230076331275313
  //    Monomer B HF (Monomer Basis)   //
    Molecular point group: c1

    Geometry (in Angstrom), charge = -4, multiplicity = 1:

       Center              X                  Y                   Z               Mass
    ------------   -----------------  -----------------  -----------------  -----------------
         O           -0.520566378515     0.559578651900     2.004204428498    15.994914619570
         C            0.592765565085     0.562144814600     2.608304702098    12.000000000000
         O            0.730869298785     0.545156853100     3.842817343298    15.994914619570
         C            1.861963169385     0.633504769500     1.761558348398    12.000000000000
         H            2.604941383585    -0.043580296000     2.190809105598     1.007825032230
         H            2.250216359385     1.645589201800     1.899415524798     1.007825032230
         N            1.669446961485     0.370625733100     0.333969951098    14.003074004430
         C            2.213483435285     1.432019148400    -0.503169524202    12.000000000000
         H            2.283436286685     1.074530059300    -1.532709554802     1.007825032230
         H            3.215683613785     1.744383335000    -0.195144627402     1.007825032230
         C            2.063203108585    -0.988768216800    -0.049496640402    12.000000000000
         H            2.148453140485    -1.028060256500    -1.136468496702     1.007825032230
         H            3.043286684985    -1.256967601600     0.360773578198     1.007825032230
         C            1.027004885885    -2.000472422700     0.421624381098    12.000000000000
         H            0.930852765985    -1.950624792800     1.507286731698     1.007825032230
         H            1.366993492685    -3.011781705300     0.171634980698     1.007825032230
         N           -0.283814690215    -1.711275409600    -0.169029410402    14.003074004430
         C           -1.425151939115    -2.205360891800     0.590429537498    12.000000000000
         H           -1.198437456015    -2.140769659200     1.656815482098     1.007825032230
         H           -1.664195675415    -3.249175303100     0.366770747798     1.007825032230
         C           -0.357533762715    -2.075883891800    -1.585613528702    12.000000000000
         H           -1.334699116015    -2.515341293100    -1.800414987902     1.007825032230
         H            0.386793538285    -2.835620566000    -1.837093698002     1.007825032230
         C           -0.212927179215    -0.907683053700    -2.559347231002    12.000000000000
         O           -0.017294914015    -1.180747142600    -3.755261850502    15.994914619570
         O           -0.338332789415     0.264165972300    -2.095011325802    15.994914619570
         C            1.292681448485     2.658485925900    -0.543469224102    12.000000000000
         O            1.790203262085     3.746229489600    -0.871669860902    15.994914619570
         O            0.063060935585     2.476007705200    -0.275017257002    15.994914619570
         C           -2.673780939815    -1.341230116000     0.371861355998    12.000000000000
         O           -3.780238678615    -1.852076945500     0.602835871798    15.994914619570
         O           -2.494413348415    -0.137339960800     0.003273904998    15.994914619570

  Charge       = -4
  Multiplicity = 1
  Basis Set: DEF2-TZVP
    Blend: DEF2-TZVP
  Basis Set: (DEF2-TZVP AUX)
    Blend: DEF2-TZVP-JKFIT

    Orbital Energies [Eh]
    ---------------------

    Doubly Occupied:

       1A    -19.982590     2A    -19.982447     3A    -19.974684
       4A    -19.974257     5A    -19.946084     6A    -19.945963
       7A    -19.935929     8A    -19.935685     9A    -15.062432
      10A    -15.062424    11A    -10.806404    12A    -10.806396
      13A    -10.801815    14A    -10.801156    15A    -10.799401
      16A    -10.799125    17A    -10.773980    18A    -10.773976
      19A    -10.766125    20A    -10.765937    21A     -0.856594
      22A     -0.855999    23A     -0.846763    24A     -0.846421
      25A     -0.762246    26A     -0.739695    27A     -0.730356
      28A     -0.729471    29A     -0.719400    30A     -0.714602
      31A     -0.556242    32A     -0.496310    33A     -0.494018
      34A     -0.446599    35A     -0.382448    36A     -0.330557
      37A     -0.231547    38A     -0.222639    39A     -0.212493
      40A     -0.210147    41A     -0.192493    42A     -0.175959
      43A     -0.150040    44A     -0.142403    45A     -0.141736
      46A     -0.124797    47A     -0.122224    48A     -0.108826
      49A     -0.107275    50A     -0.088124    51A     -0.083773
      52A     -0.077462    53A     -0.070687    54A     -0.068537
      55A     -0.058716    56A     -0.050796    57A     -0.043404
      58A     -0.038154    59A     -0.026611    60A     -0.008564
      61A     -0.004079    62A     -0.002796    63A     -0.000652
      64A      0.086525    65A      0.087491    66A      0.104686
      67A      0.108990    68A      0.125719    69A      0.128920
      70A      0.129076    71A      0.132464    72A      0.138562
      73A      0.147839    74A      0.149810    75A      0.150745
      76A      0.152074    77A      0.153783

  @DF-RHF Final Energy: -1093.30265988690735

   => Energetics <=

    Nuclear Repulsion Energy =           1711.8847894600864947
    One-Electron Energy =               -4992.0293568076185693
    Two-Electron Energy =                2186.8419074606244976
    Total Energy =                      -1093.3026598869073496

  Dipole Moment: [D]
     X:     9.5176      Y:    -9.2197      Z:     1.1329     Total:    13.2993

    SAPT Results
  --------------------------------------------------------------------------------------------------------
    Electrostatics              -1457.03817883 [mEh]    -914.30526087 [kcal/mol]   -3825.45321148 [kJ/mol]
      Elst10,r                  -1457.03817883 [mEh]    -914.30526087 [kcal/mol]   -3825.45321148 [kJ/mol]

    Exchange                      109.05335564 [mEh]      68.43201381 [kcal/mol]     286.31954578 [kJ/mol]
      Exch10                      109.05335564 [mEh]      68.43201381 [kcal/mol]     286.31954578 [kJ/mol]
      Exch10(S^2)                 108.43571219 [mEh]      68.04443670 [kcal/mol]     284.69792314 [kJ/mol]

    Induction                    -301.18493034 [mEh]    -188.99639715 [kcal/mol]    -790.76092566 [kJ/mol]
      Ind20,r                    -376.53814806 [mEh]    -236.28125514 [kcal/mol]    -988.60077152 [kJ/mol]
      Exch-Ind20,r                 72.79469543 [mEh]      45.67936102 [kcal/mol]     191.12244653 [kJ/mol]
      delta HF,r (2)                2.55852229 [mEh]       1.60549697 [kcal/mol]       6.71739934 [kJ/mol]

    Dispersion                     -4.99732581 [mEh]      -3.13586929 [kcal/mol]     -13.12047711 [kJ/mol]
      Disp20                       -5.58931288 [mEh]      -3.50734678 [kcal/mol]     -14.67473894 [kJ/mol]
      Exch-Disp20                   0.59198707 [mEh]       0.37147749 [kcal/mol]       1.55426183 [kJ/mol]
      Disp20 (SS)                  -2.79465644 [mEh]      -1.75367339 [kcal/mol]      -7.33736947 [kJ/mol]
      Disp20 (OS)                  -2.79465644 [mEh]      -1.75367339 [kcal/mol]      -7.33736947 [kJ/mol]
      Exch-Disp20 (SS)              0.24621579 [mEh]       0.15450274 [kcal/mol]       0.64643947 [kJ/mol]
      Exch-Disp20 (OS)              0.34577128 [mEh]       0.21697475 [kcal/mol]       0.90782236 [kJ/mol]

  Total HF                      -1649.16975352 [mEh]   -1034.86964420 [kcal/mol]   -4329.89459135 [kJ/mol]
  Total SAPT0                   -1654.16707933 [mEh]   -1038.00551349 [kcal/mol]   -4343.01506846 [kJ/mol]

  Special recipe for scaled SAPT0 (see Manual):
    Electrostatics sSAPT0       -1457.03817883 [mEh]    -914.30526087 [kcal/mol]   -3825.45321148 [kJ/mol]
    Exchange sSAPT0               109.05335564 [mEh]      68.43201381 [kcal/mol]     286.31954578 [kJ/mol]
    Induction sSAPT0             -299.93392876 [mEh]    -188.21138180 [kcal/mol]    -787.47642147 [kJ/mol]
    Dispersion sSAPT0              -4.98715231 [mEh]      -3.12948532 [kcal/mol]     -13.09376659 [kJ/mol]
  Total sSAPT0                  -1652.90590426 [mEh]   -1037.21411418 [kcal/mol]   -4339.70385375 [kJ/mol]
  --------------------------------------------------------------------------------------------------------

*** Psi4 exiting successfully. Buy a developer a beer!
